-- Generated [
-- Format      : Eclipse keywords (grid geometry and properties) (ASCII)
-- Exported by : Petrel 2024.3.0 Schlumberger
-- User name   : gdouwes
-- Date        : Tuesday, March 18 2025 12:01:31
-- Project     : project.pet
-- Grid        : Part of G1_TS1_FM1_Grid.GRDECL
-- Generated ]

PINCH                                  -- Generated : Petrel
  /

NOECHO                                 -- Generated : Petrel

MAPUNITS                               -- Generated : Petrel
  METRES /

MAPAXES                                -- Generated : Petrel
  395202.9942 89317.4978 395202.9942 90317.4978 396202.9942 90317.4978 /

GRIDUNIT                               -- Generated : Petrel
  METRES /

SPECGRID                               -- Generated : Petrel
  25 25 40 1 F /

COORDSYS                               -- Generated : Petrel
  1 40 /

COORD                                  -- Generated : Petrel
  -9.33450019 17.61172976 1669.530029 -9.33450019 17.61172976 1803.719971 91.2875973 17.08785548 1668.569946 91.2875973 17.08785548
  1802.550049 191.8716046 16.54492964 1667.920044 191.8716046 16.54492964 1801.599976 292.4556042 15.98295512 1667.780029
  292.4556042 15.98295512 1800.939941 393.077705 15.41145529 1668.430054 393.077705 15.41145529 1800.619995 493.6616894 14.83043017
  1669.030029 493.6616894 14.83043017 1800.589966 594.2457043 14.24940504 1669.349976 594.2457043 14.24940504 1800.689941
  694.8296887 13.66837992 1669.290039 694.8296887 13.66837992 1800.829956 795.413673 13.0968801 1668.839966 795.413673 13.0968801
  1801.01001 895.9595715 12.53490462 1668.25 895.9595715 12.53490462 1801.189941 996.5436169 12.00150504 1667.719971 996.5436169
  12.00150504 1801.280029 1097.089454 11.4776298 1667.459961 1097.089454 11.4776298 1801.069946 1197.673561 10.98233046 1667.670044
  1197.673561 10.98233046 1800.439941 1298.219459 10.50607981 1667.650024 1298.219459 10.50607981 1799.380005 1398.803444
  10.06793036 1667.219971 1398.803444 10.06793036 1798.060059 1499.387428 9.658354896 1666.579956 1499.387428 9.658354896
  1796.660034 1600.009498 9.286880153 1665.920044 1600.009498 9.286880153 1795.359985 1700.631569 8.953505176 1665.77002 1700.631569
  8.953505176 1794.280029 1801.253761 8.658229965 1666.180054 1801.253761 8.658229965 1793.390015 1901.913917 8.401054996 1666.76001
  1901.913917 8.401054996 1792.640015 2002.612159 8.172454971 1667.319946 2002.612159 8.172454971 1792.01001 2103.348487 7.972429889
  1667.72998 2103.348487 7.972429889 1791.459961 2204.08506 7.791454929 1668.079956 2204.08506 7.791454929 1790.969971 2304.859474
  7.62953009 1668.22998 2304.859474 7.62953009 1790.439941 2405.633888 7.486654895 1668.390015 2405.633888 7.486654895 1789.859985
  2506.484718 7.353305 1668.459961 2506.484718 7.353305 1789.209961 -9.753599998 117.6909057 1670.459961 -9.753599998 117.6909057
  1801.47998 90.8684994 117.1098815 1669.51001 90.8684994 117.1098815 1800.22998 191.5286938 116.5098068 1668.75 191.5286938
  116.5098068 1799.180054 292.1889111 115.9002029 1668.170044 292.1889111 115.9002029 1798.449951 392.8490979 115.2620269
  1668.420044 392.8490979 115.2620269 1798.140015 493.4711987 114.6143295 1669.109985 493.4711987 114.6143295 1798.280029
  594.0932995 113.9571029 1669.709961 594.0932995 113.9571029 1798.660034 694.7535168 113.3094055 1669.949951 694.7535168
  113.3094055 1799.069946 795.3755871 112.6712295 1669.660034 795.3755871 112.6712295 1799.359985 895.9595715 112.0425826 1669.02002
  895.9595715 112.0425826 1799.550049 996.5817028 111.4425079 1668.449951 996.5817028 111.4425079 1799.609985 1097.165748
  110.8519546 1668.22998 1097.165748 110.8519546 1799.469971 1197.787819 110.2995025 1668.52002 1197.787819 110.2995025 1799
  1298.409889 109.7661086 1668.77002 1298.409889 109.7661086 1798.160034 1399.031959 109.2612792 1668.5 1399.031959 109.2612792
  1797.030029 1499.654152 108.8040801 1667.780029 1499.654152 108.8040801 1795.780029 1600.276222 108.3945037 1667.109985
  1600.276222 108.3945037 1794.589966 1700.936378 108.0230285 1666.869995 1700.936378 108.0230285 1793.530029 1801.634742
  107.6991836 1667 1801.634742 107.6991836 1792.630005 1902.332985 107.4229537 1667.290039 1902.332985 107.4229537 1791.849976
  2003.069435 107.1753036 1667.449951 2003.069435 107.1753036 1791.199951 2103.805763 106.9657546 1667.52002 2103.805763 106.9657546
  1790.670044 2204.618507 106.7847778 1667.619995 2204.618507 106.7847778 1790.25 2305.431007 106.6323806 1668.01001 2305.431007
  106.6323806 1789.869995 2406.281593 106.4990264 1668.369995 2406.281593 106.4990264 1789.5 2507.170509 106.4037811 1668.47998
  2507.170509 106.4037811 1789.109985 -10.21080005 217.779605 1672.27002 -10.21080005 217.779605 1799 90.4875027 217.1509582
  1671.670044 90.4875027 217.1509582 1797.849976 191.2238995 216.5032531 1670.890015 191.2238995 216.5032531 1796.900024 291.9221875
  215.8269836 1669.849976 291.9221875 215.8269836 1796.219971 392.6204907 215.1316558 1669.280029 392.6204907 215.1316558
  1795.930054 493.3187939 214.4077484 1669.420044 493.3187939 214.4077484 1796.130005 593.9789807 213.6838561 1669.939941
  593.9789807 213.6838561 1796.670044 694.6772839 212.9599487 1670.420044 694.6772839 212.9599487 1797.310059 795.3375012
  212.2455779 1670.430054 795.3375012 212.2455779 1797.790039 895.9977185 211.5407287 1670.060059 895.9977185 211.5407287
  1798.050049 996.6578747 210.8644592 1669.550049 996.6578747 210.8644592 1798.099976 1097.280006 210.2072326 1669.420044
  1097.280006 210.2072326 1797.969971 1197.940162 209.5881072 1669.660034 1197.940162 209.5881072 1797.599976 1298.600441
  208.9880248 1669.859985 1298.600441 208.9880248 1796.930054 1399.260597 208.4355804 1669.719971 1399.260597 208.4355804 1795.97998
  1499.920753 207.9212371 1669.23999 1499.920753 207.9212371 1794.880005 1600.581031 207.4640228 1668.75 1600.581031 207.4640228
  1793.780029 1701.279274 207.0544616 1668.410034 1701.279274 207.0544616 1792.780029 1801.977638 206.7020294 1668.26001 1801.977638
  206.7020294 1791.890015 1902.713966 206.3972351 1668.189941 1902.713966 206.3972351 1791.109985 2003.488502 206.1400482
  1667.930054 2003.488502 206.1400482 1790.469971 2104.301124 205.9209777 1667.640015 2104.301124 205.9209777 1789.97998 2205.113624
  205.7400085 1667.969971 2205.113624 205.7400085 1789.640015 2305.964454 205.5971252 1668.569946 2305.964454 205.5971252
  1789.420044 2406.891212 205.5018798 1669.119995 2406.891212 205.5018798 1789.280029 2507.818214 205.4351989 1669.27002 2507.818214
  205.4351989 1789.170044 -10.62989986 317.8873626 1674.280029 -10.62989986 317.8873626 1796.48999 90.14459956 317.2110931
  1674.040039 90.14459956 317.2110931 1795.630005 190.881004 316.5062286 1673.25 190.881004 316.5062286 1794.920044 291.6554943
  315.7727996 1671.849976 291.6554943 315.7727996 1794.410034 392.391914 315.0108062 1670.540039 392.391914 315.0108062 1794.189941
  493.1283032 314.2202178 1670.079956 493.1283032 314.2202178 1794.390015 593.8647229 313.4201385 1670.130005 593.8647229
  313.4201385 1794.939941 694.601112 312.6200286 1670.589966 694.601112 312.6200286 1795.640015 795.2994152 311.8199188 1670.890015
  795.2994152 311.8199188 1796.23999 896.0358044 311.0388824 1670.849976 896.0358044 311.0388824 1796.589966 996.7341076 310.276889
  1670.540039 996.7341076 310.276889 1796.680054 1097.43235 309.5529815 1670.530029 1097.43235 309.5529815 1796.560059 1198.092628
  308.857669 1670.640015 1198.092628 308.857669 1796.23999 1298.79087 308.1908904 1670.650024 1298.79087 308.1908904 1795.670044
  1399.489235 307.5717803 1670.640015 1399.489235 307.5717803 1794.880005 1500.187477 307.0097991 1670.560059 1500.187477
  307.0097991 1793.939941 1600.885841 306.5049774 1670.349976 1600.885841 306.5049774 1792.959961 1701.622169 306.057315 1669.959961
  1701.622169 306.057315 1792.050049 1802.358619 305.676303 1669.569946 1802.358619 305.676303 1791.219971 1903.094947 305.342929
  1669.170044 1903.094947 305.342929 1790.5 2003.90757 305.0667144 1668.609985 2003.90757 305.0667144 1789.939941 2104.720314
  304.8381072 1668.410034 2104.720314 304.8381072 1789.550049 2205.608986 304.6666595 1668.880005 2205.608986 304.6666595
  1789.339966 2306.497902 304.5428192 1669.619995 2306.497902 304.5428192 1789.290039 2407.462745 304.4761688 1670.310059
  2407.462745 304.4761688 1789.380005 2508.465919 304.4666168 1670.48999 2508.465919 304.4666168 1789.530029 -11.04900014
  418.0046417 1675.420044 -11.04900014 418.0046417 1794.150024 89.76360286 417.2807342 1675.329956 89.76360286 417.2807342
  1793.670044 190.5761944 416.5282623 1674.48999 190.5761944 416.5282623 1793.27002 291.3888012 415.7281524 1672.800049 291.3888012
  415.7281524 1792.97998 392.2013928 414.9089996 1671.02002 392.2013928 414.9089996 1792.869995 492.9758984 414.0517608 1670.089966
  492.9758984 414.0517608 1793.040039 593.7884899 413.1754486 1669.810059 593.7884899 413.1754486 1793.5 694.5630261 412.2896148
  1670.199951 694.5630261 412.2896148 1794.119995 795.2994152 411.4038116 1670.689941 795.2994152 411.4038116 1794.709961
  896.0738903 410.5274993 1670.930054 896.0738903 410.5274993 1795.089966 996.8102795 409.6893035 1670.900024 996.8102795
  409.6893035 1795.22998 1097.584816 408.8796722 1670.97998 1097.584816 408.8796722 1795.150024 1198.321144 408.1081573 1670.969971
  1198.321144 408.1081573 1794.880005 1299.019508 407.3747283 1670.859985 1299.019508 407.3747283 1794.420044 1399.755958
  406.6889373 1671.030029 1399.755958 406.6889373 1793.790039 1500.492286 406.0697967 1671.359985 1500.492286 406.0697967
  1793.030029 1601.228737 405.5173675 1671.430054 1601.228737 405.5173675 1792.23999 1701.965065 405.0315887 1671.140015 1701.965065
  405.0315887 1791.469971 1802.701515 404.6124908 1670.650024 1802.701515 404.6124908 1790.780029 1903.514137 404.2600433
  1670.040039 1903.514137 404.2600433 1790.199951 2004.326759 403.9552642 1669.47998 2004.326759 403.9552642 1789.780029 2105.177345
  403.7171356 1669.47998 2105.177345 403.7171356 1789.540039 2206.066261 403.5456878 1670 2206.066261 403.5456878 1789.51001
  2307.031105 403.4504425 1670.859985 2307.031105 403.4504425 1789.640015 2407.996193 403.4408904 1671.589966 2407.996193
  403.4408904 1789.930054 2509.075538 403.4885284 1671.800049 2509.075538 403.4885284 1790.300049 -11.46809995 518.1409637
  1675.189941 -11.46809995 518.1409637 1792.140015 89.38259852 517.3694183 1674.780029 89.38259852 517.3694183 1792.030029
  190.2714001 516.5597869 1673.780029 190.2714001 516.5597869 1791.920044 291.1221081 515.7025482 1671.880005 291.1221081
  515.7025482 1791.839966 391.9727856 514.8167449 1669.920044 391.9727856 514.8167449 1791.829956 492.8234936 513.8927947 1668.77002
  492.8234936 513.8927947 1791.969971 593.6741711 512.9403106 1668.400024 593.6741711 512.9403106 1792.290039 694.5248791 511.968753
  1668.800049 694.5248791 511.968753 1792.73999 795.3375012 510.9971954 1669.530029 795.3375012 510.9971954 1793.199951 896.1501232
  510.0351898 1670.030029 896.1501232 510.0351898 1793.540039 996.9245983 509.0921966 1670.48999 996.9245983 509.0921966 1793.719971
  1097.737159 508.1968414 1670.75 1097.737159 508.1968414 1793.699951 1198.511696 507.3396026 1670.780029 1198.511696 507.3396026
  1793.51001 1299.286232 506.5394927 1670.660034 1299.286232 506.5394927 1793.189941 1400.060646 505.7965423 1670.609985 1400.060646
  505.7965423 1792.77002 1500.797096 505.1202728 1671.319946 1500.797096 505.1202728 1792.26001 1601.533546 504.5202056 1671.709961
  1601.533546 504.5202056 1791.709961 1702.30796 503.9963409 1671.660034 1702.30796 503.9963409 1791.180054 1803.082496 503.529605
  1671.219971 1803.082496 503.529605 1790.719971 1903.895118 503.1390716 1670.609985 1903.895118 503.1390716 1790.339966 2004.70774
  502.8152191 1670.27002 2004.70774 502.8152191 1790.109985 2105.596534 502.5675689 1670.449951 2105.596534 502.5675689 1790.050049
  2206.523292 502.4056426 1671.030029 2206.523292 502.4056426 1790.170044 2307.48838 502.3294403 1671.900024 2307.48838 502.3294403
  1790.469971 2408.52964 502.3675567 1672.599976 2408.52964 502.3675567 1790.930054 2509.608986 502.4913665 1672.859985 2509.608986
  502.4913665 1791.5 -11.88720023 618.2963592 1673.719971 -11.88720023 618.2963592 1790.27002 89.00160182 617.4676849 1671.930054
  89.00160182 617.4676849 1790.73999 189.9285046 616.5913421 1671.400024 189.9285046 616.5913421 1790.689941 290.855415 615.6864959
  1670.280029 290.855415 615.6864959 1790.680054 391.7822949 614.7339813 1668.900024 391.7822949 614.7339813 1790.75 492.7092053
  613.7529022 1667.869995 492.7092053 613.7529022 1790.920044 593.5979992 612.7337371 1667.48999 593.5979992 612.7337371 1791.170044
  694.4867932 611.6860076 1667.73999 694.4867932 611.6860076 1791.47998 795.3755871 610.6096527 1668.369995 795.3755871 610.6096527
  1791.800049 896.2262951 609.5333587 1669.050049 896.2262951 609.5333587 1792.060059 997.0770031 608.4950897 1669.699951
  997.0770031 608.4950897 1792.209961 1097.927711 607.4949676 1670.140015 1097.927711 607.4949676 1792.22998 1198.740333 606.5520355
  1670.359985 1198.740333 606.5520355 1792.130005 1299.552955 605.6852142 1670.5 1299.552955 605.6852142 1791.949951 1400.365455
  604.8851043 1670.72998 1400.365455 604.8851043 1791.699951 1501.139991 604.1802703 1671.27002 1501.139991 604.1802703 1791.400024
  1601.876442 603.5420867 1671.719971 1601.876442 603.5420867 1791.099976 1702.650856 602.9515716 1671.859985 1702.650856
  602.9515716 1790.819946 1803.463478 602.4277069 1671.689941 1803.463478 602.4277069 1790.599976 1904.2761 601.9895355 1671.400024
  1904.2761 601.9895355 1790.469971 2005.126808 601.6371185 1671.290039 2005.126808 601.6371185 1790.5 2106.01548 601.3799163
  1671.469971 2106.01548 601.3799163 1790.709961 2206.942482 601.2179901 1671.869995 2206.942482 601.2179901 1791.130005 2307.945655
  601.1799041 1672.349976 2307.945655 601.1799041 1791.75 2408.986915 601.27518 1673 2408.986915 601.27518 1792.349976 2510.142189
  601.4751922 1673.349976 2510.142189 601.4751922 1793.130005 -12.30630004 718.4516937 1672.459961 -12.30630004 718.4516937
  1788.109985 88.65869868 717.5754119 1670.650024 88.65869868 717.5754119 1788.800049 189.623695 716.6419403 1669.530029 189.623695
  716.6419403 1789.189941 290.5886914 715.6703826 1668.609985 290.5886914 715.6703826 1789.430054 391.5918042 714.6607391
  1667.699951 391.5918042 714.6607391 1789.650024 492.5568005 713.6130096 1666.98999 492.5568005 713.6130096 1789.859985 593.5218273
  712.5271331 1666.689941 593.5218273 712.5271331 1790.079956 694.4867932 711.4127532 1666.839966 694.4867932 711.4127532
  1790.290039 795.413673 710.2602264 1667.339966 795.413673 710.2602264 1790.48999 896.340614 709.0695526 1668.030029 896.340614
  709.0695526 1790.650024 997.2294079 707.8979827 1668.75 997.2294079 707.8979827 1790.75 1098.118141 706.7931243 1669.369995
  1098.118141 706.7931243 1790.77002 1199.007057 705.7548553 1669.880005 1199.007057 705.7548553 1790.73999 1299.857643 704.8119232
  1670.329956 1299.857643 704.8119232 1790.670044 1400.670265 704.0022918 1670.790039 1400.670265 704.0022918 1790.589966
  1501.444801 703.2783538 1671.290039 1501.444801 703.2783538 1790.51001 1602.257423 702.5830413 1671.73999 1602.257423 702.5830413
  1790.439941 1703.031959 701.9162933 1672.040039 1703.031959 701.9162933 1790.410034 1803.844459 701.3162567 1672.160034
  1803.844459 701.3162567 1790.439941 1904.657081 700.8018524 1672.199951 1904.657081 700.8018524 1790.589966 2005.507789
  700.4113494 1672.290039 2005.507789 700.4113494 1790.900024 2106.396583 700.1446258 1672.469971 2106.396583 700.1446258
  1791.410034 2207.361671 700.011325 1672.75 2207.361671 700.011325 1792.119995 2308.364601 700.049411 1673.089966 2308.364601
  700.049411 1793 2409.405861 700.2018157 1673.469971 2409.405861 700.2018157 1793.97998 2510.599464 700.4589569 1673.660034
  2510.599464 700.4589569 1795.119995 -12.72540009 818.6261321 1671.459961 -12.72540009 818.6261321 1785.76001 88.27770198
  817.683139 1669.619995 88.27770198 817.683139 1786.699951 189.2807995 816.6925384 1668.160034 189.2807995 816.6925384 1787.47998
  290.3219982 815.6638519 1667.140015 290.3219982 815.6638519 1788.069946 391.363197 814.5875579 1666.439941 391.363197 814.5875579
  1788.48999 492.4425122 813.473117 1666 492.4425122 813.473117 1788.800049 593.4836804 812.3301116 1665.839966 593.4836804
  812.3301116 1789.01001 694.4867932 811.1680633 1666 694.4867932 811.1680633 1789.150024 795.489906 809.9584075 1666.410034
  795.489906 809.9584075 1789.23999 896.4548718 808.6820404 1667.01001 896.4548718 808.6820404 1789.290039 997.3818127 807.2818328
  1668.48999 997.3818127 807.2818328 1832.630005 1098.346779 806.110263 1669.01001 1098.346779 806.110263 1831.530029 1199.273658
  804.9577362 1669.810059 1199.273658 804.9577362 1830.890015 1300.162452 803.8623992 1670.930054 1300.162452 803.8623992
  1830.670044 1400.975074 803.2242156 1670.77002 1400.975074 803.2242156 1789.469971 1501.787696 802.4431487 1671.319946 1501.787696
  802.4431487 1789.599976 1602.600319 801.6335174 1671.829956 1602.600319 801.6335174 1789.76001 1703.412941 800.881076 1672.280029
  1703.412941 800.881076 1789.969971 1804.225441 800.195285 1672.660034 1804.225441 800.195285 1790.27002 1905.038063 799.6047088
  1672.969971 1905.038063 799.6047088 1790.680054 2005.926857 799.137973 1673.22998 2005.926857 799.137973 1791.27002 2106.815773
  798.8426849 1673.459961 2106.815773 798.8426849 1792.079956 2207.74253 798.8236419 1673.660034 2207.74253 798.8236419 1793.089966
  2308.707618 798.9665252 1673.839966 2308.707618 798.9665252 1794.319946 2409.786964 799.1570159 1673.97998 2409.786964 799.1570159
  1795.73999 2510.980568 799.4332611 1673.98999 2510.980568 799.4332611 1797.349976 -13.14449989 918.7910491 1670.790039
  -13.14449989 918.7910491 1836.589966 87.89669764 917.8004486 1668.790039 87.89669764 917.8004486 1836.469971 188.9760052
  916.752658 1667.170044 188.9760052 916.752658 1836.079956 290.0553051 915.6477996 1666 290.0553051 915.6477996 1835.439941
  391.1727062 914.5047943 1665.280029 391.1727062 914.5047943 1834.619995 492.2901074 913.3237029 1664.949951 492.2901074
  913.3237029 1833.699951 593.4075085 912.1235076 1664.910034 593.4075085 912.1235076 1832.73999 694.4867932 910.9043304 1665.089966
  694.4867932 910.9043304 1831.810059 795.5660778 909.6756317 1665.400024 795.5660778 909.6756317 1830.949951 896.6454235
  908.4373504 1665.72998 896.6454235 908.4373504 1830.25 997.6866223 907.2086517 1667.209961 997.6866223 907.2086517 1829.780029
  1098.575416 906.1322967 1686.150024 1098.575416 906.1322967 1828.660034 1199.502296 904.9702484 1686.73999 1199.502296 904.9702484
  1828.170044 1300.467262 903.6938812 1670.589966 1300.467262 903.6938812 1827.949951 1401.31797 902.6175872 1670.430054 1401.31797
  902.6175872 1827.359985 1502.130592 901.6079437 1671.339966 1502.130592 901.6079437 1826.819946 1602.943214 900.674472 1672.069946
  1602.943214 900.674472 1826.160034 1703.755836 899.8267547 1672.699951 1703.755836 899.8267547 1825.310059 1804.606544 899.0742523
  1673.290039 1804.606544 899.0742523 1824.219971 1905.457252 898.4075042 1673.829956 1905.457252 898.4075042 1822.930054 2006.30796
  897.855075 1674.319946 2006.30796 897.855075 1821.5 2107.234718 897.4073821 1674.819946 2107.234718 897.4073821 1819.349976
  2208.047462 897.7979461 1674.540039 2208.047462 897.7979461 1794.069946 2309.050392 897.9693939 1674.550049 2309.050392
  897.9693939 1795.719971 2410.129737 898.1313201 1674.5 2410.129737 898.1313201 1797.589966 2511.361427 898.3979827 1674.359985
  2511.361427 898.3979827 1799.709961 -12.8778001 1019.041659 1684.75 -12.8778001 1019.041659 1832.76001 88.20149958 1018.051059
  1684.329956 88.20149958 1018.051059 1833.430054 189.2807995 1017.003329 1683.810059 189.2807995 1017.003329 1833.810059
  290.3601147 1015.907931 1683.22998 290.3601147 1015.907931 1833.77002 391.4774853 1014.764926 1682.589966 391.4774853 1014.764926
  1833.23999 492.5568005 1013.593356 1681.969971 492.5568005 1013.593356 1832.27002 593.6360852 1012.383701 1681.430054 593.6360852
  1012.383701 1830.959961 694.7153698 1011.164462 1681.01001 694.7153698 1011.164462 1829.5 795.7947155 1009.916721 1680.77002
  795.7947155 1009.916721 1828.089966 896.7978283 1008.678439 1680.780029 896.7978283 1008.678439 1826.880005 997.8008801
  1007.449741 1681.050049 997.8008801 1007.449741 1826.02002 1098.765846 1006.249606 1681.569946 1098.765846 1006.249606 1825.540039
  1199.65464 1005.058932 1682.27002 1199.65464 1005.058932 1825.369995 1300.581642 1003.906406 1683.050049 1300.581642 1003.906406
  1825.430054 1401.43235 1002.830112 1683.790039 1401.43235 1002.830112 1825.579956 1502.24485 1001.820468 1684.369995 1502.24485
  1001.820468 1825.650024 1603.057472 1000.886996 1684.670044 1603.057472 1000.886996 1825.48999 1703.832008 1000.039279 1684.650024
  1703.832008 1000.039279 1825.02002 1804.64463 999.2867767 1684.319946 1804.64463 999.2867767 1824.22998 1905.495338 998.6105071
  1683.719971 1905.495338 998.6105071 1823.140015 2006.384132 997.9914276 1682.900024 2006.384132 997.9914276 1821.800049 2107.31089
  997.3246795 1675.420044 2107.31089 997.3246795 1819.640015 2208.275978 997.0674774 1675.130005 2208.275978 997.0674774 1818.069946
  2309.317237 996.9722015 1675.109985 2309.317237 996.9722015 1816.619995 2410.472755 997.0674774 1674.930054 2410.472755
  997.0674774 1815.199951 2511.74253 997.3437225 1674.670044 2511.74253 997.3437225 1814.030029 -12.64920008 1119.311313 1679.819946
  -12.64920008 1119.311313 1828.640015 88.46820033 1118.311191 1680.089966 88.46820033 1118.311191 1830.25 189.5855938 1117.272983
  1680.170044 189.5855938 1117.272983 1831.52002 290.7030102 1116.177646 1680.030029 290.7030102 1116.177646 1832.150024 391.7822949
  1115.034579 1679.680054 391.7822949 1115.034579 1831.949951 492.8616101 1113.853549 1679.109985 492.8616101 1113.853549
  1830.939941 593.9028088 1112.643832 1678.369995 593.9028088 1112.643832 1829.290039 694.9440075 1111.415073 1677.569946
  694.9440075 1111.415073 1827.300049 795.9852062 1110.16727 1676.890015 795.9852062 1110.16727 1825.349976 896.988319 1108.910068
  1676.48999 896.988319 1108.910068 1823.780029 997.9532849 1107.671786 1676.51001 997.9532849 1107.671786 1822.790039 1098.918312
  1106.433505 1676.959961 1098.918312 1106.433505 1822.430054 1199.845192 1105.242953 1677.780029 1199.845192 1105.242953
  1822.599976 1300.6959 1104.11893 1678.829956 1300.6959 1104.11893 1823.130005 1401.546608 1103.042636 1679.910034 1401.546608
  1103.042636 1823.800049 1502.35923 1102.032992 1680.819946 1502.35923 1102.032992 1824.359985 1603.133644 1101.099521 1681.420044
  1603.133644 1101.099521 1824.630005 1703.90818 1100.251865 1681.619995 1703.90818 1100.251865 1824.5 1804.720802 1099.48978
  1681.420044 1804.720802 1099.48978 1823.959961 1905.533424 1098.81351 1680.939941 1905.533424 1098.81351 1823.119995 2006.422218
  1098.222934 1680.300049 2006.422218 1098.222934 1822.089966 2107.31089 1097.784824 1679.589966 2107.31089 1097.784824 1820.969971
  2208.314064 1097.565707 1678.839966 2208.314064 1097.565707 1819.849976 2309.393409 1097.556186 1678.069946 2309.393409
  1097.556186 1818.790039 2410.587013 1097.775302 1677.300049 2410.587013 1097.775302 1817.880005 2511.894874 1098.232455
  1676.560059 2511.894874 1098.232455 1817.22998 -12.38250005 1219.600009 1674.880005 -12.38250005 1219.600009 1824.449951
  88.77300227 1218.590366 1675.810059 88.77300227 1218.590366 1826.969971 189.8904034 1217.542636 1676.459961 189.8904034
  1217.542636 1829.119995 290.9697033 1216.437778 1676.810059 290.9697033 1216.437778 1830.420044 392.048988 1215.304233 1676.810059
  392.048988 1215.304233 1830.599976 493.1283032 1214.123202 1676.349976 493.1283032 1214.123202 1829.589966 594.1694714 1212.913486
  1675.410034 594.1694714 1212.913486 1827.609985 695.2106701 1211.665683 1674.189941 695.2106701 1211.665683 1825.119995
  796.2137829 1210.418002 1673.050049 796.2137829 1210.418002 1822.670044 897.1788098 1209.151157 1672.25 897.1788098 1209.151157
  1820.76001 998.1437756 1207.893832 1672 998.1437756 1207.893832 1819.670044 1099.070655 1206.665073 1672.380005 1099.070655
  1206.665073 1819.449951 1199.997657 1205.464999 1673.329956 1199.997657 1205.464999 1819.949951 1300.848243 1204.331454
  1674.630005 1300.848243 1204.331454 1820.900024 1401.660865 1203.25516 1676.01001 1401.660865 1203.25516 1822.02002 1502.435402
  1202.245517 1677.219971 1502.435402 1202.245517 1823.02002 1603.248024 1201.321567 1678.099976 1603.248024 1201.321567 1823.689941
  1704.02256 1200.464389 1678.530029 1704.02256 1200.464389 1823.900024 1804.796974 1199.711826 1678.459961 1804.796974 1199.711826
  1823.609985 1905.609596 1199.054599 1678.040039 1905.609596 1199.054599 1822.98999 2006.422218 1198.530795 1677.660034 2006.422218
  1198.530795 1822.339966 2107.34922 1198.197421 1677.329956 2107.34922 1198.197421 1821.75 2208.35215 1198.054477 1677.02002
  2208.35215 1198.054477 1821.22998 2309.431495 1198.149814 1676.719971 2309.431495 1198.149814 1820.810059 2410.663185 1198.492709
  1676.430054 2410.663185 1198.492709 1820.550049 2512.047218 1199.111728 1676.160034 2512.047218 1199.111728 1820.52002
  -12.11579978 1319.898349 1669.869995 -12.11579978 1319.898349 1820.25 89.03970302 1318.898227 1671.349976 89.03970302 1318.898227
  1823.530029 190.1570965 1317.831332 1672.619995 190.1570965 1317.831332 1826.390015 291.2745129 1316.726474 1673.530029
  291.2745129 1316.726474 1828.319946 392.3537976 1315.574008 1673.959961 392.3537976 1315.574008 1828.910034 493.3949963
  1314.392856 1673.670044 493.3949963 1314.392856 1828.01001 594.436195 1313.173617 1672.530029 594.436195 1313.173617 1825.869995
  695.4393078 1311.925937 1670.920044 695.4393078 1311.925937 1823.030029 796.4424206 1310.668613 1669.359985 796.4424206
  1310.668613 1820.219971 897.4073864 1309.401767 1668.180054 897.4073864 1309.401767 1818.050049 998.3724133 1308.144443
  1667.680054 998.3724133 1308.144443 1816.900024 1099.261207 1306.906161 1667.920044 1099.261207 1306.906161 1816.800049
  1200.150001 1305.71561 1668.97998 1200.150001 1305.71561 1817.540039 1301.000709 1304.572543 1670.449951 1301.000709 1304.572543
  1818.790039 1401.813331 1303.496249 1672.050049 1401.813331 1303.496249 1820.199951 1502.587745 1302.477084 1673.459961
  1502.587745 1302.477084 1821.5 1603.362281 1301.543613 1674.560059 1603.362281 1301.543613 1822.48999 1704.098732 1300.705478
  1675.23999 1704.098732 1300.705478 1823.030029 1804.873146 1299.952914 1675.400024 1804.873146 1299.952914 1823.079956 1905.647682
  1299.333774 1675.030029 1905.647682 1299.333774 1822.699951 2006.49839 1298.867099 1675.040039 2006.49839 1298.867099 1822.589966
  2107.387306 1298.600375 1675.130005 2107.387306 1298.600375 1822.569946 2208.390236 1298.543246 1675.25 2208.390236 1298.543246
  1822.650024 2309.507667 1298.724277 1675.400024 2309.507667 1298.724277 1822.859985 2410.739357 1299.190951 1675.560059
  2410.739357 1299.190951 1823.22998 2512.16172 1299.962436 1675.75 2512.16172 1299.962436 1823.810059 -11.81100022 1420.234653
  1664.400024 -11.81100022 1420.234653 1816.410034 89.30640376 1419.225009 1666.550049 89.30640376 1419.225009 1819.800049
  190.4238049 1418.148715 1668.630005 190.4238049 1418.148715 1822.969971 291.541206 1417.034213 1670.25 291.541206 1417.034213
  1825.319946 392.6204907 1415.862704 1671.030029 392.6204907 1415.862704 1826.349976 493.6616894 1414.672031 1670.77002 493.6616894
  1414.672031 1825.819946 594.7029187 1413.433749 1669.630005 594.7029187 1413.433749 1823.910034 695.7059704 1412.176547
  1667.839966 695.7059704 1412.176547 1821.160034 796.7090832 1410.919223 1665.969971 796.7090832 1410.919223 1818.349976
  897.6360241 1409.652377 1664.52002 897.6360241 1409.652377 1816.119995 998.562904 1408.395053 1663.75 998.562904 1408.395053
  1814.920044 1099.489845 1407.166415 1663.900024 1099.489845 1407.166415 1814.790039 1200.340553 1405.96622 1664.869995 1200.340553
  1405.96622 1815.530029 1301.191261 1404.823154 1666.300049 1301.191261 1404.823154 1816.790039 1401.965675 1403.74686 1667.869995
  1401.965675 1403.74686 1818.23999 1502.740211 1402.727695 1669.369995 1502.740211 1402.727695 1819.619995 1603.476539 1401.803744
  1670.579956 1603.476539 1401.803744 1820.76001 1704.212989 1400.96561 1671.380005 1704.212989 1400.96561 1821.560059 1804.94944
  1400.241733 1671.959961 1804.94944 1400.241733 1822.140015 1905.723854 1399.651157 1672.219971 1905.723854 1399.651157 1822.469971
  2006.536476 1399.222446 1672.540039 2006.536476 1399.222446 1822.869995 2107.425392 1398.99393 1672.97998 2107.425392 1398.99393
  1823.410034 2208.428321 1399.003451 1673.51001 2208.428321 1399.003451 1824.089966 2309.545753 1399.279697 1674.089966 2309.545753
  1399.279697 1824.930054 2410.815529 1399.870151 1674.709961 2410.815529 1399.870151 1825.930054 2512.275978 1400.784579
  1675.349976 2512.275978 1400.784579 1827.069946 -11.54429996 1520.599521 1659.680054 -11.54429996 1520.599521 1812.199951
  89.57309687 1519.570834 1662.109985 89.57309687 1519.570834 1815.550049 190.7285992 1518.485019 1664.530029 190.7285992
  1518.485019 1818.73999 291.8078991 1517.351596 1666.5 291.8078991 1517.351596 1821.209961 392.8872143 1516.170444 1667.640015
  392.8872143 1516.170444 1822.47998 493.928413 1514.960727 1667.72998 493.928413 1514.960727 1822.310059 594.9695812 1513.713046
  1666.77002 594.9695812 1513.713046 1820.880005 695.972694 1512.446201 1665.099976 695.972694 1512.446201 1818.640015 796.9758068
  1511.179355 1663.300049 796.9758068 1511.179355 1816.300049 897.9026867 1509.912509 1661.77002 897.9026867 1509.912509 1814.439941
  998.8296276 1508.655185 1661 998.8296276 1508.655185 1813.449951 1099.718361 1507.426547 1661.199951 1099.718361 1507.426547
  1813.410034 1200.569069 1506.235873 1662.170044 1200.569069 1506.235873 1814.140015 1301.381691 1505.092929 1663.609985